# Probe 0 (0 0.0025 0.0025)
# Probe 1 (0.0125 0.0025 0.0025)
# Probe 2 (0.01875 0.0025 0.0025)
# Probe 3 (0.025 0.0025 0.0025)
# Probe 4 (0.03125 0.0025 0.0025)
# Probe 5 (0.0375 0.0025 0.0025)
# Probe 6 (0.04375 0.0025 0.0025)
# Probe 7 (0.05 0.0025 0.0025)
#       Probe             0             1             2             3             4             5             6             7
#        Time
          2.4           300           300           300           300           300       300.001        300.51        607.23
          4.8           300           300           300           300           300       300.006       302.189       718.761
          7.2           300           300           300           300           300       300.024        305.46       766.561
          9.6           300           300           300           300           300       300.069        310.41       791.092
           12           300           300           300           300       300.001        300.16       316.872       805.845
         14.4           300           300           300           300       300.002        300.32       324.547       815.829
         16.8           300           300           300           300       300.005       300.572       333.107       823.154
         19.2           300           300           300           300       300.011       300.941       342.247       828.831
         21.6           300           300           300           300        300.02       301.446       351.714       833.403
           24           300           300           300           300       300.035       302.102       361.308       837.189
         26.4           300           300           300           300       300.057       302.919       370.883       840.393
         28.8           300           300           300       300.001        300.09       303.905        380.33       843.151
         31.2           300           300           300       300.001       300.136       305.061       389.579       845.558
         33.6           300           300           300       300.002       300.198       306.384       398.579       847.682
           36           300           300           300       300.003       300.278       307.869       407.303       849.576
         38.4           300           300           300       300.005        300.38       309.508       415.733       851.277
         40.8           300           300           300       300.007       300.506       311.292       423.863       852.817
         43.2           300           300           300        300.01       300.659        313.21       431.694       854.219
         45.6           300           300           300       300.015       300.842       315.251        439.23       855.503
           48           300           300           300       300.021       301.057       317.405       446.479       856.685
         50.4           300           300       300.001       300.029       301.305       319.658        453.45       857.778
         52.8           300           300       300.001       300.039       301.589       322.002       460.155       858.791
         55.2           300           300       300.002       300.051       301.909       324.424       466.605       859.735
         57.6           300           300       300.002       300.067       302.268       326.914       472.811       860.617
           60           300           300       300.003       300.086       302.664       329.464       478.785       861.443
         62.4           300           300       300.004       300.109         303.1       332.065       484.539        862.22
         64.8           300           300       300.005       300.137       303.575       334.708       490.084       862.951
         67.2           300           300       300.007       300.169       304.088       337.387       495.429       863.642
         69.6           300           300       300.009       300.207       304.641       340.093       500.586       864.295
           72           300           300       300.012        300.25       305.232       342.822       505.564       864.914
         74.4           300       300.001       300.015         300.3        305.86       345.567       510.371       865.502
         76.8           300       300.001       300.019       300.357       306.526       348.324       515.017       866.061
         79.2           300       300.001       300.024       300.421       307.228       351.088       519.509       866.594
         81.6           300       300.001        300.03       300.492       307.964       353.854       523.855       867.103
           84           300       300.002       300.037       300.572       308.735        356.62       528.063       867.589
         86.4           300       300.002       300.045        300.66       309.539       359.381       532.138       868.055
         88.8           300       300.003       300.054       300.758       310.374       362.135       536.088         868.5
         91.2           300       300.004       300.065       300.864        311.24        364.88       539.918       868.928
         93.6           300       300.004       300.077        300.98       312.135       367.613       543.634       869.338
           96           300       300.005       300.091       301.106       313.058       370.331       547.241       869.733
         98.4           300       300.007       300.106       301.243       314.008       373.034       550.745       870.113
        100.8           300       300.008       300.124       301.389       314.983        375.72       554.149       870.479
        103.2           300        300.01       300.144       301.546       315.982       378.387       557.458       870.832
        105.6           300       300.012       300.166       301.714       317.004       381.034       560.677       871.172
          108           300       300.014        300.19       301.893       318.048        383.66       563.809       871.501
        110.4           300       300.017       300.217       302.083       319.112       386.264       566.858       871.819
        112.8           300        300.02       300.247       302.284       320.195       388.846       569.828       872.126
        115.2           300       300.023       300.279       302.497       321.297       391.404       572.721       872.424
        117.6           300       300.027       300.315       302.721       322.415       393.939       575.541       872.712
          120           300       300.032       300.354       302.956        323.55        396.45       578.291       872.992
        122.4           300       300.037       300.395       303.202       324.699       398.936       580.974       873.263
        124.8           300       300.042       300.441        303.46       325.863       401.398       583.592       873.525
        127.2           300       300.048       300.489       303.729       327.039       403.834       586.147       873.781
        129.6           300       300.055       300.542       304.009       328.227       406.246       588.643       874.029
          132       300.001       300.063       300.598       304.301       329.426       408.632       591.081        874.27
        134.4       300.001       300.071       300.658       304.604       330.636       410.993       593.464       874.505
        136.8       300.001       300.081       300.722       304.917       331.854       413.329       595.793       874.733
        139.2       300.001       300.091        300.79       305.242       333.082        415.64       598.071       874.955
        141.6       300.001       300.102       300.862       305.577       334.317       417.925       600.299       875.172
          144       300.001       300.114       300.939       305.923       335.559       420.186       602.479       875.383
        146.4       300.002       300.127        301.02        306.28       336.808       422.422       604.613       875.588
        148.8       300.002       300.142       301.105       306.647       338.062       424.633       606.702       875.789
        151.2       300.002       300.157       301.195       307.024       339.321        426.82       608.748       875.985
        153.6       300.003       300.174       301.289       307.412       340.585       428.982       610.752       876.176
          156       300.003       300.192       301.388       307.809       341.853       431.121       612.716       876.363
        158.4       300.004       300.211       301.492       308.216       343.124       433.235       614.641       876.545
        160.8       300.004       300.232         301.6       308.632       344.398       435.326       616.528       876.723
        163.2       300.005       300.254       301.713       309.058       345.674       437.394       618.378       876.897
        165.6       300.005       300.277       301.831       309.493       346.952       439.438       620.194       877.067
          168       300.006       300.302       301.954       309.936       348.232        441.46       621.974       877.234
        170.4       300.007       300.329       302.082       310.389       349.513       443.459       623.722       877.397
        172.8       300.008       300.357       302.214        310.85       350.794       445.436       625.437       877.556
        175.2       300.009       300.387       302.352        311.32       352.075       447.391       627.122       877.713
        177.6        300.01       300.418       302.494       311.797       353.356       449.324       628.775       877.866
          180       300.012       300.452       302.642       312.283       354.637       451.235         630.4       878.016
        182.4       300.013       300.487       302.794       312.776       355.916       453.126       631.995       878.162
        184.8       300.015       300.524       302.952       313.277       357.195       454.995       633.563       878.306
        187.2       300.017       300.563       303.114       313.786       358.472       456.844       635.104       878.448
        189.6       300.019       300.604       303.281       314.301       359.748       458.673       636.619       878.586
          192       300.021       300.647       303.454       314.824       361.021       460.482       638.108       878.722
        194.4       300.023       300.691       303.631       315.353       362.293       462.271       639.573       878.855
        196.8       300.026       300.738       303.813       315.889       363.561        464.04       641.013       878.986
        199.2       300.028       300.787           304       316.431       364.828        465.79        642.43       879.114
        201.6       300.031       300.838       304.192       316.979       366.091       467.522       643.824        879.24
          204       300.035       300.892       304.389       317.534       367.351       469.234       645.195       879.364
        206.4       300.038       300.947        304.59       318.094       368.608       470.929       646.545       879.486
        208.8       300.042       301.005       304.797        318.66       369.862       472.605       647.874       879.605
        211.2       300.046       301.065       305.008       319.232       371.112       474.264       649.183       879.723
        213.6        300.05       301.127       305.224       319.808       372.358       475.904       650.471       879.838
          216       300.055       301.191       305.445        320.39         373.6       477.528        651.74       879.952
        218.4        300.06       301.258        305.67       320.977       374.839       479.135        652.99       880.063
        220.8       300.066       301.327         305.9       321.568       376.073       480.725       654.221       880.173
        223.2       300.071       301.398       306.134       322.164       377.303       482.298       655.434       880.281
        225.6       300.078       301.472       306.373       322.765       378.528       483.855       656.629       880.387
          228       300.084       301.548       306.617        323.37        379.75       485.396       657.808       880.491
        230.4       300.091       301.627       306.865       323.979       380.966       486.921       658.969       880.594
        232.8       300.099       301.708       307.117       324.592       382.178       488.431       660.114       880.696
        235.2       300.107       301.791       307.374       325.209       383.385       489.925       661.242       880.795
        237.6       300.115       301.877       307.635       325.829       384.588       491.404       662.355       880.893
          240       300.124       301.966         307.9       326.453       385.785       492.868       663.453        880.99
        242.4       300.133       302.057        308.17       327.081       386.978       494.318       664.536       881.085
        244.8       300.143        302.15       308.443       327.711       388.166       495.753       665.604       881.179
        247.2       300.154       302.246       308.721       328.345       389.348       497.174       666.657       881.271
        249.6       300.165       302.344       309.002       328.982       390.526       498.581       667.697       881.362
          252       300.177       302.445       309.288       329.622       391.698       499.974       668.723       881.452
        254.4       300.189       302.548       309.577       330.264       392.865       501.354       669.735       881.541
        256.8       300.202       302.654       309.871       330.909       394.027        502.72       670.735       881.628
        259.2       300.216       302.763       310.168       331.557       395.184       504.073       671.721       881.714
        261.6        300.23       302.874       310.469       332.206       396.336       505.413       672.695       881.799
          264       300.245       302.987       310.774       332.858       397.482        506.74       673.657       881.882
        266.4       300.261       303.103       311.082       333.513       398.623       508.055       674.606       881.965
        268.8       300.277       303.221       311.394       334.169       399.758       509.357       675.544       882.046
        271.2       300.294       303.342       311.709       334.827       400.888       510.646        676.47       882.126
        273.6       300.312       303.466       312.028       335.487       402.013       511.924       677.385       882.206
          276       300.331       303.592        312.35       336.149       403.132        513.19       678.289       882.284
        278.4       300.351        303.72       312.675       336.812       404.246       514.444       679.182       882.361
        280.8       300.371       303.851       313.004       337.477       405.355       515.686       680.064       882.437
        283.2       300.392       303.985       313.336       338.143       406.458       516.917       680.935       882.512
        285.6       300.415       304.121       313.671       338.811       407.555       518.137       681.797       882.586
          288       300.438       304.259       314.009        339.48       408.648       519.346       682.648        882.66
        290.4       300.461         304.4       314.351        340.15       409.735       520.543        683.49       882.732
        292.8       300.486       304.543       314.695       340.821       410.816        521.73       684.322       882.803
        295.2       300.512       304.689       315.042       341.493       411.892       522.907       685.144       882.874
        297.6       300.539       304.838       315.392       342.166       412.963       524.073       685.957       882.944
          300       300.567       304.988       315.745        342.84       414.028       525.228       686.761       883.013
        302.4       300.595       305.141       316.101       343.514       415.088       526.373       687.556       883.081
        304.8       300.625       305.297        316.46        344.19       416.143       527.509       688.343       883.148
        307.2       300.656       305.455       316.821       344.865       417.192       528.634        689.12       883.214
        309.6       300.688       305.615       317.185       345.542       418.236        529.75       689.889        883.28
          312       300.721       305.777       317.551       346.219       419.274       530.855        690.65       883.345
        314.4       300.755       305.942        317.92       346.896       420.307       531.952       691.403       883.409
        316.8        300.79        306.11       318.291       347.574       421.335       533.039       692.147       883.472
        319.2       300.826       306.279       318.665       348.252       422.358       534.117       692.884       883.535
        321.6       300.864       306.451       319.041        348.93       423.375       535.185       693.613       883.597
          324       300.902       306.625       319.419       349.608       424.388       536.245       694.334       883.658
        326.4       300.942       306.802         319.8       350.286       425.395       537.296       695.048       883.719
        328.8       300.983       306.981       320.183       350.965       426.396       538.338       695.754       883.779
        331.2       301.025       307.162       320.568       351.643       427.393       539.371       696.453       883.838
        333.6       301.069       307.345       320.955       352.321       428.384       540.396       697.145       883.897
          336       301.113        307.53       321.344           353       429.371       541.412        697.83       883.955
        338.4       301.159       307.718       321.735       353.678       430.352        542.42       698.509       884.012
        340.8       301.206       307.908       322.128       354.355       431.328        543.42        699.18       884.069
        343.2       301.255         308.1       322.524       355.033       432.299       544.412       699.845       884.125
        345.6       301.304       308.294       322.921        355.71       433.265       545.395       700.503       884.181
          348       301.355        308.49       323.319       356.387       434.226       546.371       701.155       884.235
        350.4       301.408       308.689        323.72       357.064       435.182       547.339         701.8        884.29
        352.8       301.461       308.889       324.122        357.74       436.133       548.299       702.439       884.344
        355.2       301.516       309.092       324.526       358.415       437.079       549.252       703.073       884.397
        357.6       301.573       309.296       324.932        359.09        438.02       550.197         703.7        884.45
          360        301.63       309.503        325.34       359.765       438.957       551.135       704.321       884.502
        362.4       301.689       309.712       325.748       360.439       439.888       552.066       704.936       884.554
        364.8        301.75       309.922       326.159       361.112       440.815       552.989       705.545       884.605
        367.2       301.812       310.135       326.571       361.785       441.737       553.905       706.149       884.656
        369.6       301.875        310.35       326.984       362.457       442.654       554.814       706.748       884.706
          372        301.94       310.566       327.399       363.128       443.566       555.716        707.34       884.756
        374.4       302.006       310.785       327.816       363.799       444.474       556.612       707.928       884.805
        376.8       302.073       311.005       328.233       364.468       445.377         557.5        708.51       884.854
        379.2       302.143       311.228       328.652       365.137       446.275       558.382       709.086       884.902
        381.6       302.213       311.452       329.072       365.805       447.169       559.257       709.658        884.95
          384       302.285       311.678       329.494       366.472       448.058       560.126       710.225       884.997
        386.4       302.358       311.906       329.917       367.139       448.943       560.988       710.786       885.044
        388.8       302.433       312.135        330.34       367.804       449.823       561.844       711.343        885.09
        391.2        302.51       312.367       330.765       368.468       450.698       562.693       711.894       885.137
        393.6       302.588         312.6       331.191       369.132       451.569       563.536       712.441       885.182
          396       302.667       312.835       331.619       369.794       452.436       564.373       712.983       885.227
        398.4       302.748       313.072       332.047       370.456       453.298       565.204       713.521       885.272
        400.8       302.831       313.311       332.476       371.116       454.155       566.029       714.054       885.317
        403.2       302.915       313.551       332.906       371.775       455.009       566.848       714.582       885.361
        405.6           303       313.793       333.337       372.433       455.858       567.661       715.106       885.404
          408       303.087       314.037        333.77        373.09       456.702       568.469       715.625       885.447
        410.4       303.176       314.282       334.203       373.746       457.543        569.27        716.14        885.49
        412.8       303.266       314.529       334.636       374.401       458.379       570.066       716.651       885.533
        415.2       303.358       314.778       335.071       375.055       459.211       570.856       717.158       885.575
        417.6       303.451       315.028       335.506       375.708       460.039       571.641        717.66       885.617
          420       303.546        315.28       335.943       376.359       460.862        572.42       718.158       885.658
        422.4       303.642       315.533        336.38       377.009       461.682       573.194       718.653       885.699
        424.8       303.741       315.788       336.817       377.658       462.497       573.963       719.143        885.74
        427.2        303.84       316.045       337.256       378.306       463.308       574.726       719.629        885.78
        429.6       303.941       316.303       337.695       378.952       464.115       575.484       720.112        885.82
          432       304.044       316.563       338.135       379.597       464.918       576.236        720.59        885.86
        434.4       304.148       316.824       338.575       380.241       465.717       576.984       721.065       885.899
        436.8       304.254       317.086       339.016       380.884       466.512       577.727       721.536       885.938
        439.2       304.362        317.35       339.458       381.525       467.304       578.464       722.003       885.977
        441.6       304.471       317.616         339.9       382.165       468.091       579.197       722.467       886.015
          444       304.582       317.883       340.342       382.804       468.874       579.924       722.927       886.053
        446.4       304.694       318.151       340.786       383.441       469.654       580.647       723.384       886.091
        448.8       304.808       318.421       341.229       384.077       470.429       581.365       723.837       886.128
        451.2       304.923       318.692       341.673       384.712       471.201       582.078       724.286       886.165
        453.6       305.041       318.964       342.118       385.345       471.969       582.787       724.732       886.202
          456       305.159       319.238       342.563       385.977       472.733       583.491       725.175       886.239
        458.4        305.28       319.513       343.008       386.608       473.494        584.19       725.614       886.275
        460.8       305.401       319.789       343.454       387.237       474.251       584.885       726.051       886.311
        463.2       305.525       320.067         343.9       387.865       475.004       585.575       726.484       886.346
        465.6        305.65       320.346       344.347       388.491       475.753       586.261       726.913       886.382
          468       305.777       320.626       344.793       389.116       476.499       586.943        727.34       886.417
        470.4       305.905       320.908       345.241        389.74       477.242        587.62       727.763       886.452
        472.8       306.035       321.191       345.688       390.362        477.98       588.293       728.183       886.486
        475.2       306.167       321.475       346.136       390.983       478.715       588.961       728.601       886.521
        477.6         306.3        321.76       346.584       391.602       479.447       589.625       729.015       886.555
          480       306.434       322.046       347.032        392.22       480.175       590.286       729.426       886.589
        482.4       306.571       322.334        347.48       392.837       480.899       590.942       729.834       886.622
        484.8       306.709       322.623       347.929       393.452       481.621       591.593       730.239       886.655
        487.2       306.848       322.913       348.378       394.065       482.338       592.241       730.642       886.689
        489.6       306.989       323.204       348.826       394.677       483.053       592.885       731.042       886.721
          492       307.132       323.496       349.276       395.288       483.763       593.525       731.438       886.754
        494.4       307.276        323.79       349.725       395.898       484.471       594.161       731.832       886.786
        496.8       307.422       324.084       350.174       396.505       485.175       594.793       732.224       886.818
        499.2       307.569        324.38       350.624       397.112       485.876       595.421       732.612        886.85
        501.6       307.718       324.676       351.073       397.717       486.574       596.046       732.998       886.882
          504       307.869       324.974       351.523        398.32       487.268       596.666       733.381       886.913
        506.4       308.021       325.273       351.973       398.922       487.959       597.283       733.762       886.944
        508.8       308.175       325.572       352.423       399.523       488.647       597.896        734.14       886.975
        511.2        308.33       325.873       352.873       400.122       489.331       598.506       734.515       887.006
        513.6       308.487       326.175       353.322       400.719       490.013       599.112       734.888       887.037
          516       308.645       326.478       353.772       401.315       490.691       599.714       735.259       887.067
        518.4       308.805       326.782       354.222        401.91       491.366       600.313       735.627       887.097
        520.8       308.967       327.086       354.672       402.503       492.038       600.908       735.992       887.127
        523.2        309.13       327.392       355.122       403.095       492.707         601.5       736.355       887.157
        525.6       309.294       327.699       355.572       403.685       493.373       602.088       736.716       887.186
          528        309.46       328.007       356.022       404.274       494.036       602.673       737.074       887.215
        530.4       309.628       328.315       356.472       404.861       494.696       603.254        737.43       887.245
        532.8       309.797       328.625       356.922       405.447       495.353       603.832       737.784       887.273
        535.2       309.968       328.935       357.371       406.032       496.007       604.407       738.135       887.302
        537.6        310.14       329.246       357.821       406.615       496.658       604.979       738.484       887.331
          540       310.314       329.559       358.271       407.196       497.306       605.547       738.831       887.359
        542.4       310.489       329.872        358.72       407.776       497.951       606.112       739.176       887.387
        544.8       310.665       330.186       359.169       408.355       498.593       606.674       739.518       887.415
        547.2       310.844         330.5       359.619       408.932       499.232       607.232       739.858       887.443
        549.6       311.023       330.816       360.068       409.507       499.868       607.788       740.196        887.47
          552       311.204       331.132       360.517       410.081       500.502        608.34       740.532       887.498
        554.4       311.387        331.45       360.966       410.654       501.133        608.89       740.866       887.525
        556.8       311.571       331.768       361.414       411.225       501.761       609.436       741.198       887.552
        559.2       311.757       332.087       361.863       411.795       502.386       609.979       741.528       887.579
        561.6       311.944       332.406       362.311       412.364       503.008       610.519       741.855       887.605